    9
Geometry Step: 27
    C      0.99318837     -0.03401298      0.10069229      4.25847971
    C      0.50075611     -1.45217711     -0.11904882      4.04293716
    S      1.03987392     -2.61430713      1.20807541      6.25908738
    H      0.64072205      0.36541559      1.04887992      0.90758672
    H      0.63091158      0.61758250     -0.69405896      0.91714451
    H      2.08076865      0.01289139      0.10059770      0.91686596
    H     -0.59162793     -1.48172405     -0.13083797      0.91982646
    H      0.84620951     -1.83287547     -1.08704988      0.93264244
    H      2.37376675     -2.44789475      1.10128531      0.84542966
