|===============================================================================
|
|  DFTB+ release 21.1
|
|  Copyright (C) 2006 - 2021  DFTB+ developers group
|
|===============================================================================
|
|  When publishing results obtained with DFTB+, please cite the following
|  reference:
|
|  * DFTB+, a software package for efficient approximate density functional
|    theory based atomistic simulations, J. Chem. Phys. 152, 124101 (2020).
|    [doi: 10.1063/1.5143190]
|
|  You should also cite additional publications crediting the parametrization
|  data you use. Please consult the documentation of the SK-files for the
|  references.
|
|===============================================================================

Reading input file 'dftb_in.hsd'
Parser version: 9

--------------------------------------------------------------------------------
Reading SK-files:
Done.


Processed input in HSD format written to 'dftb_pin.hsd'

Starting initialization...
--------------------------------------------------------------------------------
OpenMP threads:              8
Chosen random seed:          367049224
Mode:                        Modified gDIIS relaxation
WARNING!
-> This geometry optimisation method requires force related energies for accurate minimisation.
Self consistent charges:     Yes
SCC-tolerance:                 0.100000E-04
Max. scc iterations:                    100
Shell resolved Hubbard:      No
Spin polarisation:           No
Nr. of up electrons:            10.000000
Nr. of down electrons:          10.000000
Periodic boundaries:         No
Electronic solver:           Relatively robust
Mixer:                       Broyden mixer
Mixing parameter:                  0.200000
Maximal SCC-cycles:                     100
Nr. of chrg. vec. in memory:              0
Nr. of moved atoms:                       9
Max. nr. of geometry steps:             200
Force tolerance:               0.100000E-03
Electronic temperature:        0.100000E-07 H      0.272114E-06 eV
Initial charges:             Set automatically (system chrg:   0.000E+00)
Included shells:             C:  s, p
                             H:  s
                             S:  s, p, d
Full 3rd order correction    Yes
Damped SCC                   Yes
Damped species(s):           H                                                 
Extra options:
                             Mulliken analysis
Force type                   original

--------------------------------------------------------------------------------

***  Geometry step: 0

 iSCC Total electronic   Diff electronic      SCC error    
    1    0.00000000E+00    0.00000000E+00    0.34674589E+00
    2   -0.80420563E+01   -0.80420563E+01    0.24978671E+00
    3   -0.80427162E+01   -0.65994854E-03    0.48337629E-01
    4   -0.80433565E+01   -0.64025201E-03    0.17415559E-01
    5   -0.80433640E+01   -0.75097315E-05    0.24314657E-02
    6   -0.80433667E+01   -0.27656803E-05    0.14141881E-02
    7   -0.80433670E+01   -0.22432056E-06    0.31362723E-03
    8   -0.80433670E+01   -0.27832847E-08    0.40282847E-04
    9   -0.80433670E+01   -0.21444855E-08    0.45268548E-04
   10   -0.80433670E+01    0.64090955E-11    0.59777108E-06

Total Energy:                       -8.1147134197 H         -220.8126 eV
Extrapolated to 0K:                 -8.1147134197 H         -220.8126 eV
Total Mermin free energy:           -8.1147134197 H         -220.8126 eV
Force related energy:               -8.1147134197 H         -220.8126 eV

Maximal force component:             0.987882E-02
Averaged force norm:                 0.680456E-02
>> Charges saved for restart in charges.dat

--------------------------------------------------------------------------------

***  Geometry step: 1

 iSCC Total electronic   Diff electronic      SCC error    
    1   -0.80433670E+01    0.00000000E+00    0.23542637E-02
    2   -0.80425134E+01    0.85357163E-03    0.17448428E-02
    3   -0.80425136E+01   -0.20914978E-06    0.46232984E-03
    4   -0.80425138E+01   -0.22830150E-06    0.71562555E-04
    5   -0.80425138E+01   -0.19696991E-08    0.22174646E-04
    6   -0.80425138E+01   -0.12298429E-09    0.30736255E-05

Total Energy:                       -8.1141772032 H         -220.7980 eV
Extrapolated to 0K:                 -8.1141772032 H         -220.7980 eV
Total Mermin free energy:           -8.1141772032 H         -220.7980 eV
Force related energy:               -8.1141772032 H         -220.7980 eV

Maximal force component:             0.136170E-01
Averaged force norm:                 0.995090E-02
>> Charges saved for restart in charges.dat

--------------------------------------------------------------------------------

***  Geometry step: 2

 iSCC Total electronic   Diff electronic      SCC error    
    1   -0.80425138E+01    0.00000000E+00    0.68458105E-02
    2   -0.80448907E+01   -0.23768801E-02    0.50843204E-02
    3   -0.80448925E+01   -0.17878344E-05    0.13701922E-02
    4   -0.80448944E+01   -0.18961937E-05    0.27909081E-03
    5   -0.80448944E+01   -0.24108575E-07    0.15678337E-03
    6   -0.80448944E+01   -0.74175865E-09    0.94320871E-05

Total Energy:                       -8.1151508650 H         -220.8245 eV
Extrapolated to 0K:                 -8.1151508650 H         -220.8245 eV
Total Mermin free energy:           -8.1151508650 H         -220.8245 eV
Force related energy:               -8.1151508650 H         -220.8245 eV

Maximal force component:             0.370694E-02
Averaged force norm:                 0.279333E-02
>> Charges saved for restart in charges.dat

--------------------------------------------------------------------------------

***  Geometry step: 3

 iSCC Total electronic   Diff electronic      SCC error    
    1   -0.80448944E+01    0.00000000E+00    0.11479418E-02
    2   -0.80445382E+01    0.35618635E-03    0.85407683E-03
    3   -0.80445383E+01   -0.51283994E-07    0.26649693E-03
    4   -0.80445383E+01   -0.47770778E-07    0.22832365E-04
    5   -0.80445383E+01   -0.24085978E-08    0.80642583E-05

Total Energy:                       -8.1152368665 H         -220.8268 eV
Extrapolated to 0K:                 -8.1152368665 H         -220.8268 eV
Total Mermin free energy:           -8.1152368665 H         -220.8268 eV
Force related energy:               -8.1152368665 H         -220.8268 eV

Maximal force component:             0.308234E-02
Averaged force norm:                 0.207955E-02
>> Charges saved for restart in charges.dat

--------------------------------------------------------------------------------

***  Geometry step: 4

 iSCC Total electronic   Diff electronic      SCC error    
    1   -0.80445383E+01    0.00000000E+00    0.10848828E-03
    2   -0.80445026E+01    0.35766994E-04    0.88537716E-04
    3   -0.80445026E+01   -0.53231730E-09    0.29070698E-04
    4   -0.80445026E+01   -0.49374371E-09    0.50208717E-05

Total Energy:                       -8.1152379666 H         -220.8269 eV
Extrapolated to 0K:                 -8.1152379666 H         -220.8269 eV
Total Mermin free energy:           -8.1152379666 H         -220.8269 eV
Force related energy:               -8.1152379666 H         -220.8269 eV

Maximal force component:             0.316825E-02
Averaged force norm:                 0.212331E-02
>> Charges saved for restart in charges.dat

--------------------------------------------------------------------------------

***  Geometry step: 5

 iSCC Total electronic   Diff electronic      SCC error    
    1   -0.80445026E+01    0.00000000E+00    0.34976663E-02
    2   -0.80445365E+01   -0.33977029E-04    0.24815070E-02
    3   -0.80445367E+01   -0.16979851E-06    0.67987282E-03
    4   -0.80445369E+01   -0.16577322E-06    0.24006646E-04
    5   -0.80445369E+01   -0.31215297E-08    0.13373473E-04
    6   -0.80445369E+01   -0.59088734E-10    0.14454423E-05

Total Energy:                       -8.1152967802 H         -220.8285 eV
Extrapolated to 0K:                 -8.1152967802 H         -220.8285 eV
Total Mermin free energy:           -8.1152967802 H         -220.8285 eV
Force related energy:               -8.1152967802 H         -220.8285 eV

Maximal force component:             0.518551E-02
Averaged force norm:                 0.303617E-02
>> Charges saved for restart in charges.dat

--------------------------------------------------------------------------------

***  Geometry step: 6

 iSCC Total electronic   Diff electronic      SCC error    
    1   -0.80445369E+01    0.00000000E+00    0.12518829E-02
    2   -0.80454859E+01   -0.94902866E-03    0.90131720E-03
    3   -0.80454859E+01   -0.15610681E-07    0.43593332E-04
    4   -0.80454859E+01   -0.17030409E-07    0.50436261E-05

Total Energy:                       -8.1153239683 H         -220.8292 eV
Extrapolated to 0K:                 -8.1153239683 H         -220.8292 eV
Total Mermin free energy:           -8.1153239683 H         -220.8292 eV
Force related energy:               -8.1153239683 H         -220.8292 eV

Maximal force component:             0.606890E-02
Averaged force norm:                 0.355441E-02
>> Charges saved for restart in charges.dat

--------------------------------------------------------------------------------

***  Geometry step: 7

 iSCC Total electronic   Diff electronic      SCC error    
    1   -0.80454859E+01    0.00000000E+00    0.16214477E-03
    2   -0.80455292E+01   -0.43278920E-04    0.12562329E-03
    3   -0.80455292E+01   -0.45568349E-09    0.23968007E-04
    4   -0.80455292E+01   -0.51468874E-09    0.23082725E-05

Total Energy:                       -8.1153308425 H         -220.8294 eV
Extrapolated to 0K:                 -8.1153308425 H         -220.8294 eV
Total Mermin free energy:           -8.1153308425 H         -220.8294 eV
Force related energy:               -8.1153308425 H         -220.8294 eV

Maximal force component:             0.599251E-02
Averaged force norm:                 0.353670E-02
>> Charges saved for restart in charges.dat

--------------------------------------------------------------------------------

***  Geometry step: 8

 iSCC Total electronic   Diff electronic      SCC error    
    1   -0.80455292E+01    0.00000000E+00    0.89634993E-03
    2   -0.80459074E+01   -0.37816511E-03    0.68228401E-03
    3   -0.80459074E+01   -0.85456158E-08    0.98938949E-04
    4   -0.80459074E+01   -0.91990096E-08    0.12881062E-04
    5   -0.80459074E+01   -0.29016434E-09    0.22360161E-05

Total Energy:                       -8.1153279560 H         -220.8293 eV
Extrapolated to 0K:                 -8.1153279560 H         -220.8293 eV
Total Mermin free energy:           -8.1153279560 H         -220.8293 eV
Force related energy:               -8.1153279560 H         -220.8293 eV

Maximal force component:             0.701464E-02
Averaged force norm:                 0.417450E-02
>> Charges saved for restart in charges.dat

--------------------------------------------------------------------------------

***  Geometry step: 9

 iSCC Total electronic   Diff electronic      SCC error    
    1   -0.80459074E+01    0.00000000E+00    0.19246371E-02
    2   -0.80462948E+01   -0.38740640E-03    0.15029048E-02
    3   -0.80462949E+01   -0.49394595E-07    0.28485883E-03
    4   -0.80462949E+01   -0.52015594E-07    0.15335783E-04
    5   -0.80462949E+01   -0.97452890E-09    0.10397990E-04
    6   -0.80462949E+01   -0.98339115E-11    0.17637231E-05

Total Energy:                       -8.1151446737 H         -220.8243 eV
Extrapolated to 0K:                 -8.1151446737 H         -220.8243 eV
Total Mermin free energy:           -8.1151446737 H         -220.8243 eV
Force related energy:               -8.1151446737 H         -220.8243 eV

Maximal force component:             0.104761E-01
Averaged force norm:                 0.626988E-02
>> Charges saved for restart in charges.dat

--------------------------------------------------------------------------------

***  Geometry step: 10

 iSCC Total electronic   Diff electronic      SCC error    
    1   -0.80462949E+01    0.00000000E+00    0.48352278E-02
    2   -0.80454786E+01    0.81636718E-03    0.34303781E-02
    3   -0.80454789E+01   -0.31798199E-06    0.83666340E-03
    4   -0.80454792E+01   -0.32395489E-06    0.64914128E-04
    5   -0.80454792E+01   -0.74468645E-08    0.44674328E-04
    6   -0.80454792E+01   -0.65357497E-10    0.52972051E-05

Total Energy:                       -8.1154129298 H         -220.8316 eV
Extrapolated to 0K:                 -8.1154129298 H         -220.8316 eV
Total Mermin free energy:           -8.1154129298 H         -220.8316 eV
Force related energy:               -8.1154129298 H         -220.8316 eV

Maximal force component:             0.233916E-02
Averaged force norm:                 0.173543E-02
>> Charges saved for restart in charges.dat

--------------------------------------------------------------------------------

***  Geometry step: 11

 iSCC Total electronic   Diff electronic      SCC error    
    1   -0.80454792E+01    0.00000000E+00    0.17594460E-02
    2   -0.80451077E+01    0.37154255E-03    0.12606122E-02
    3   -0.80451077E+01   -0.26394622E-07    0.21553716E-03
    4   -0.80451077E+01   -0.27835744E-07    0.18605131E-04
    5   -0.80451077E+01   -0.22520119E-09    0.85855574E-05

Total Energy:                       -8.1154294639 H         -220.8321 eV
Extrapolated to 0K:                 -8.1154294639 H         -220.8321 eV
Total Mermin free energy:           -8.1154294639 H         -220.8321 eV
Force related energy:               -8.1154294639 H         -220.8321 eV

Maximal force component:             0.203158E-02
Averaged force norm:                 0.112335E-02
>> Charges saved for restart in charges.dat

--------------------------------------------------------------------------------

***  Geometry step: 12

 iSCC Total electronic   Diff electronic      SCC error    
    1   -0.80451077E+01    0.00000000E+00    0.18468717E-02
    2   -0.80446725E+01    0.43519113E-03    0.12985840E-02
    3   -0.80446726E+01   -0.49263154E-07    0.11318289E-03
    4   -0.80446726E+01   -0.46556014E-07    0.11517199E-04
    5   -0.80446726E+01   -0.25175417E-09    0.52022039E-05

Total Energy:                       -8.1155521286 H         -220.8354 eV
Extrapolated to 0K:                 -8.1155521286 H         -220.8354 eV
Total Mermin free energy:           -8.1155521286 H         -220.8354 eV
Force related energy:               -8.1155521286 H         -220.8354 eV

Maximal force component:             0.147669E-02
Averaged force norm:                 0.899873E-03
>> Charges saved for restart in charges.dat

--------------------------------------------------------------------------------

***  Geometry step: 13

 iSCC Total electronic   Diff electronic      SCC error    
    1   -0.80446726E+01    0.00000000E+00    0.15556751E-02
    2   -0.80440226E+01    0.64998522E-03    0.11281921E-02
    3   -0.80440227E+01   -0.31191002E-07    0.17143228E-03
    4   -0.80440227E+01   -0.31206262E-07    0.25517258E-04
    5   -0.80440227E+01   -0.75902840E-09    0.83071355E-05

Total Energy:                       -8.1156240033 H         -220.8374 eV
Extrapolated to 0K:                 -8.1156240033 H         -220.8374 eV
Total Mermin free energy:           -8.1156240033 H         -220.8374 eV
Force related energy:               -8.1156240033 H         -220.8374 eV

Maximal force component:             0.133827E-02
Averaged force norm:                 0.111646E-02
>> Charges saved for restart in charges.dat

--------------------------------------------------------------------------------

***  Geometry step: 14

 iSCC Total electronic   Diff electronic      SCC error    
    1   -0.80440227E+01    0.00000000E+00    0.79964603E-03
    2   -0.80442201E+01   -0.19745118E-03    0.59966665E-03
    3   -0.80442202E+01   -0.93230685E-08    0.10402270E-03
    4   -0.80442202E+01   -0.10485445E-07    0.16922390E-04
    5   -0.80442202E+01   -0.11839418E-09    0.21894523E-05

Total Energy:                       -8.1156491786 H         -220.8381 eV
Extrapolated to 0K:                 -8.1156491786 H         -220.8381 eV
Total Mermin free energy:           -8.1156491786 H         -220.8381 eV
Force related energy:               -8.1156491786 H         -220.8381 eV

Maximal force component:             0.643192E-03
Averaged force norm:                 0.502223E-03
>> Charges saved for restart in charges.dat

--------------------------------------------------------------------------------

***  Geometry step: 15

 iSCC Total electronic   Diff electronic      SCC error    
    1   -0.80442202E+01    0.00000000E+00    0.58465636E-03
    2   -0.80443464E+01   -0.12626888E-03    0.45395022E-03
    3   -0.80443464E+01   -0.21895907E-08    0.35808744E-04
    4   -0.80443464E+01   -0.22408813E-08    0.82808099E-05

Total Energy:                       -8.1156684956 H         -220.8386 eV
Extrapolated to 0K:                 -8.1156684956 H         -220.8386 eV
Total Mermin free energy:           -8.1156684956 H         -220.8386 eV
Force related energy:               -8.1156684956 H         -220.8386 eV

Maximal force component:             0.460420E-03
Averaged force norm:                 0.390894E-03
>> Charges saved for restart in charges.dat

--------------------------------------------------------------------------------

***  Geometry step: 16

 iSCC Total electronic   Diff electronic      SCC error    
    1   -0.80443464E+01    0.00000000E+00    0.22879170E-03
    2   -0.80442899E+01    0.56524011E-04    0.16721298E-03
    3   -0.80442899E+01   -0.15965238E-08    0.27992356E-04
    4   -0.80442899E+01   -0.16293615E-08    0.35916181E-05

Total Energy:                       -8.1156834369 H         -220.8390 eV
Extrapolated to 0K:                 -8.1156834369 H         -220.8390 eV
Total Mermin free energy:           -8.1156834369 H         -220.8390 eV
Force related energy:               -8.1156834369 H         -220.8390 eV

Maximal force component:             0.513250E-03
Averaged force norm:                 0.434015E-03
>> Charges saved for restart in charges.dat

--------------------------------------------------------------------------------

***  Geometry step: 17

 iSCC Total electronic   Diff electronic      SCC error    
    1   -0.80442899E+01    0.00000000E+00    0.59802054E-03
    2   -0.80443181E+01   -0.28209108E-04    0.43086343E-03
    3   -0.80443181E+01   -0.12298113E-07    0.47187878E-04
    4   -0.80443182E+01   -0.12756439E-07    0.78779825E-05

Total Energy:                       -8.1156890393 H         -220.8391 eV
Extrapolated to 0K:                 -8.1156890393 H         -220.8391 eV
Total Mermin free energy:           -8.1156890393 H         -220.8391 eV
Force related energy:               -8.1156890393 H         -220.8391 eV

Maximal force component:             0.838419E-03
Averaged force norm:                 0.526830E-03
>> Charges saved for restart in charges.dat

--------------------------------------------------------------------------------

***  Geometry step: 18

 iSCC Total electronic   Diff electronic      SCC error    
    1   -0.80443182E+01    0.00000000E+00    0.43212050E-03
    2   -0.80445017E+01   -0.18351884E-03    0.32018299E-03
    3   -0.80445017E+01   -0.30390339E-08    0.40418510E-04
    4   -0.80445017E+01   -0.34427305E-08    0.60981037E-05

Total Energy:                       -8.1156926509 H         -220.8392 eV
Extrapolated to 0K:                 -8.1156926509 H         -220.8392 eV
Total Mermin free energy:           -8.1156926509 H         -220.8392 eV
Force related energy:               -8.1156926509 H         -220.8392 eV

Maximal force component:             0.263620E-03
Averaged force norm:                 0.193762E-03
>> Charges saved for restart in charges.dat

--------------------------------------------------------------------------------

***  Geometry step: 19

 iSCC Total electronic   Diff electronic      SCC error    
    1   -0.80445017E+01    0.00000000E+00    0.29446461E-03
    2   -0.80444942E+01    0.75099919E-05    0.22152572E-03
    3   -0.80444942E+01   -0.13211725E-08    0.54375241E-04
    4   -0.80444942E+01   -0.13893580E-08    0.37372657E-05

Total Energy:                       -8.1156950082 H         -220.8393 eV
Extrapolated to 0K:                 -8.1156950082 H         -220.8393 eV
Total Mermin free energy:           -8.1156950082 H         -220.8393 eV
Force related energy:               -8.1156950082 H         -220.8393 eV

Maximal force component:             0.292576E-03
Averaged force norm:                 0.256803E-03
>> Charges saved for restart in charges.dat

--------------------------------------------------------------------------------

***  Geometry step: 20

 iSCC Total electronic   Diff electronic      SCC error    
    1   -0.80444942E+01    0.00000000E+00    0.24236612E-03
    2   -0.80444699E+01    0.24271834E-04    0.18073976E-03
    3   -0.80444699E+01   -0.85793950E-09    0.25632910E-04
    4   -0.80444699E+01   -0.99413100E-09    0.82889575E-06

Total Energy:                       -8.1156955392 H         -220.8393 eV
Extrapolated to 0K:                 -8.1156955392 H         -220.8393 eV
Total Mermin free energy:           -8.1156955392 H         -220.8393 eV
Force related energy:               -8.1156955392 H         -220.8393 eV

Maximal force component:             0.163132E-03
Averaged force norm:                 0.109477E-03
>> Charges saved for restart in charges.dat

--------------------------------------------------------------------------------

***  Geometry step: 21

 iSCC Total electronic   Diff electronic      SCC error    
    1   -0.80444699E+01    0.00000000E+00    0.73573568E-04
    2   -0.80445081E+01   -0.38224640E-04    0.53864493E-04
    3   -0.80445081E+01   -0.57807981E-10    0.63039238E-05

Total Energy:                       -8.1156964768 H         -220.8393 eV
Extrapolated to 0K:                 -8.1156964768 H         -220.8393 eV
Total Mermin free energy:           -8.1156964768 H         -220.8393 eV
Force related energy:               -8.1156964768 H         -220.8393 eV

Maximal force component:             0.158003E-03
Averaged force norm:                 0.996836E-04
>> Charges saved for restart in charges.dat

--------------------------------------------------------------------------------

***  Geometry step: 22

 iSCC Total electronic   Diff electronic      SCC error    
    1   -0.80445081E+01    0.00000000E+00    0.83924464E-04
    2   -0.80445247E+01   -0.16581429E-04    0.61808758E-04
    3   -0.80445247E+01   -0.93786312E-10    0.75875669E-05

Total Energy:                       -8.1156972954 H         -220.8394 eV
Extrapolated to 0K:                 -8.1156972954 H         -220.8394 eV
Total Mermin free energy:           -8.1156972954 H         -220.8394 eV
Force related energy:               -8.1156972954 H         -220.8394 eV

Maximal force component:             0.944069E-04
Averaged force norm:                 0.845015E-04
>> Charges saved for restart in charges.dat

Geometry converged

--------------------------------------------------------------------------------
DFTB+ running times                          cpu [s]             wall clock [s]
--------------------------------------------------------------------------------
Pre-SCC initialisation                 +     0.04  (  2.2%)      0.01  (  2.3%)
SCC                                    +     0.90  ( 45.7%)      0.15  ( 44.0%)
Post-SCC processing                    +     1.02  ( 51.7%)      0.19  ( 52.9%)
--------------------------------------------------------------------------------
Missing                                +     0.01  (  0.4%)      0.00  (  0.9%)
Total                                  =     1.98  (100.0%)      0.35  (100.0%)
--------------------------------------------------------------------------------
