    9
Geometry Step: 27
    C      1.05191505      0.01109591      0.08751194      4.25847952
    C      0.55948072      1.06315760      1.06354543      4.04293742
    S      1.09859509      2.76908298      0.61451189      6.25908756
    H      0.69944914      0.21097228     -0.92177171      0.90758670
    H      0.68963801     -0.97375325      0.38124473      0.91714459
    H      2.13949608     -0.02782153      0.06133205      0.91686603
    H     -0.53290317      1.08103853      1.08985485      0.91982630
    H      0.90493518      0.83666993      2.07875932      0.93264219
    H      2.43248888      2.57141155      0.60983249      0.84542970
